<VTKFile type="UnstructuredGrid" version="1.0" byte_order="LittleEndian" header_type="UInt64">
  <UnstructuredGrid>
    <Piece NumberOfPoints="49" NumberOfCells="8">
      <PointData>
        <DataArray type="Float32" Name="DistanceToCenter" format="ascii" RangeMin="0" RangeMax="1.4142135381698608">
          1.4142135381698608 1 1.4142135381698608 1 0 1
          1.4142135381698608 1 1.4142135381698608 1.201850414276123 1.054092526435852 1.201850414276123
          0.9428090453147888 0.7453559637069702 0.6666666269302368 1.054092526435852 0.7453559637069702 0.471404492855072
          0.3333333134651184 0.6666666269302368 0.3333333134651184 1.054092526435852 1.201850414276123 0.745356023311615
          0.942808985710144 1.201850414276123 0.4714045226573944 0.7453559637069702 1.054092526435852 0.3333333730697632
          0.6666666269302368 1.054092526435852 0.745356023311615 0.4714045226573944 0.3333333730697632 1.201850414276123
          0.942808985710144 0.7453559637069702 0.6666666269302368 1.201850414276123 1.054092526435852 0.4714045822620392
          0.7453559637069702 1.054092526435852 0.7453559637069702 0.942808985710144 1.201850414276123 1.054092526435852
          1.201850414276123
        </DataArray>
        <DataArray type="Float32" Name="Polynomial" format="ascii" RangeMin="1" RangeMax="49">
          1 4 15 4 10 26
          15 26 49 1 1 1
          1 1 4 1 1 1
          4 4 4 5 8 5
          8 16 6 10 18 11
          15 5 5 6 11 8
          8 10 15 16 18 14
          19 29 19 25 36 29
          36
        </DataArray>
      </PointData>
      <CellData>
      </CellData>
      <Points>
        <DataArray type="Float32" Name="Points" NumberOfComponents="3" format="ascii" RangeMin="0" RangeMax="2.8284271247461903">
          0 0 0 1 0 0
          2 0 0 0 1 0
          1 1 0 2 1 0
          0 2 0 1 2 0
          2 2 0 0.3333333432674408 0 0
          0.6666666865348816 0 0 0 0.3333333432674408 0
          0.3333333432674408 0.3333333432674408 0 0.6666666865348816 0.3333333432674408 0
          1 0.3333333432674408 0 0 0.6666666865348816 0
          0.3333333432674408 0.6666666865348816 0 0.6666666865348816 0.6666666865348816 0
          1 0.6666666865348816 0 0.3333333432674408 1 0
          0.6666666865348816 1 0 1.3333333730697632 0 0
          1.6666666269302368 0 0 1.3333333730697632 0.3333333432674408 0
          1.6666666269302368 0.3333333432674408 0 2 0.3333333432674408 0
          1.3333333730697632 0.6666666865348816 0 1.6666666269302368 0.6666666865348816 0
          2 0.6666666865348816 0 1.3333333730697632 1 0
          1.6666666269302368 1 0 0 1.3333333730697632 0
          0.3333333432674408 1.3333333730697632 0 0.6666666865348816 1.3333333730697632 0
          1 1.3333333730697632 0 0 1.6666666269302368 0
          0.3333333432674408 1.6666666269302368 0 0.6666666865348816 1.6666666269302368 0
          1 1.6666666269302368 0 0.3333333432674408 2 0
          0.6666666865348816 2 0 1.3333333730697632 1.3333333730697632 0
          1.6666666269302368 1.3333333730697632 0 2 1.3333333730697632 0
          1.3333333730697632 1.6666666269302368 0 1.6666666269302368 1.6666666269302368 0
          2 1.6666666269302368 0 1.3333333730697632 2 0
          1.6666666269302368 2 0
          <InformationKey name="L2_NORM_FINITE_RANGE" location="vtkDataArray" length="2">
            <Value index="0">
              0
            </Value>
            <Value index="1">
              2.8284271247
            </Value>
          </InformationKey>
          <InformationKey name="L2_NORM_RANGE" location="vtkDataArray" length="2">
            <Value index="0">
              0
            </Value>
            <Value index="1">
              2.8284271247
            </Value>
          </InformationKey>
        </DataArray>
      </Points>
      <Cells>
        <DataArray type="Int64" Name="connectivity" format="ascii" RangeMin="0" RangeMax="48">
          0 1 3 9 10 13
          16 15 11 12 4 3
          1 20 19 16 13 14
          18 17 1 2 4 21
          22 24 26 18 14 23
          5 4 2 30 29 26
          24 25 28 27 3 4
          6 19 20 33 36 35
          31 32 7 6 4 40
          39 36 33 34 38 37
          4 5 7 29 30 42
          44 38 34 41 8 7
          5 48 47 44 42 43
          46 45
        </DataArray>
        <DataArray type="Int64" Name="offsets" format="ascii" RangeMin="10" RangeMax="80">
          10 20 30 40 50 60
          70 80
        </DataArray>
        <DataArray type="UInt8" Name="types" format="ascii" RangeMin="69" RangeMax="69">
          69 69 69 69 69 69
          69 69
        </DataArray>
      </Cells>
    </Piece>
  </UnstructuredGrid>
</VTKFile>
