<VTKFile type="UnstructuredGrid" version="1.0" byte_order="LittleEndian" header_type="UInt64">
  <UnstructuredGrid>
    <Piece NumberOfPoints="49" NumberOfCells="8">
      <PointData Vectors="Result">
        <DataArray type="Float32" Name="DistanceToCenter" format="ascii" RangeMin="0" RangeMax="1.4142135381698608">
          1.4142135381698608 1 1.4142135381698608 1 0 1
          1.4142135381698608 1 1.4142135381698608 1.201850414276123 1.054092526435852 1.201850414276123
          0.9428090453147888 0.7453559637069702 0.6666666269302368 1.054092526435852 0.7453559637069702 0.471404492855072
          0.3333333134651184 0.6666666269302368 0.3333333134651184 1.054092526435852 1.201850414276123 0.745356023311615
          0.942808985710144 1.201850414276123 0.4714045226573944 0.7453559637069702 1.054092526435852 0.3333333730697632
          0.6666666269302368 1.054092526435852 0.745356023311615 0.4714045226573944 0.3333333730697632 1.201850414276123
          0.942808985710144 0.7453559637069702 0.6666666269302368 1.201850414276123 1.054092526435852 0.4714045822620392
          0.7453559637069702 1.054092526435852 0.7453559637069702 0.942808985710144 1.201850414276123 1.054092526435852
          1.201850414276123
        </DataArray>
        <DataArray type="Float32" Name="Polynomial" format="ascii" RangeMin="1" RangeMax="49">
          1 4 15 4 10 26
          15 26 49 1 1 1
          1 1 4 1 1 1
          4 4 4 5 8 5
          8 16 6 10 18 11
          15 5 5 6 11 8
          8 10 15 16 18 14
          19 29 19 25 36 29
          36
        </DataArray>
        <DataArray type="Float64" Name="Result" NumberOfComponents="3" format="ascii" RangeMin="0.08895213036368632" RangeMax="1.9954079615554763">
          0 0 1 0 0 1.8414709848078965
          0 0 1.9092974268256817 0 0 0.5403023058681398
          0 0 1.3817732906760363 0 0 1.4495997326938215
          0 0 -0.4161468365471424 0 0 0.4253241482607541
          0 0 0.4931505902785393 0 0 1.3271947061834561
          0 0 1.618369818683914 0 0 0.9449569430643503
          0 0 1.2721516492478064 0 0 1.5633267617482642
          0 0 1.7864279278722468 0 0 0.7858872484910437
          0 0 1.1130819546744999 0 0 1.4042570671749577
          0 0 1.6273582332989402 0 0 0.8674970120515959
          0 0 1.1586721245520537 0 0 1.9719379107108135
          0 0 1.9954079615554763 0 0 1.9168948537751636
          0 0 1.9403649046198266 0 0 1.854254369890032
          0 0 1.757825159201857 0 0 1.78129521004652
          0 0 1.6951846753167255 0 0 1.5122402165789532
          0 0 1.535710267423616 0 0 0.23523753468164693
          0 0 0.562432240865103 0 0 0.8536073533655608
          0 0 1.0767085194895434 0 0 -0.09572350846041702
          0 0 0.23147119772303906 0 0 0.522646310223497
          0 0 0.7457474763474795 0 0 -0.08895213036368632
          0 0 0.20222298213677153 0 0 1.2071754453924604
          0 0 1.2306454962371232 0 0 1.1445349615073286
          0 0 0.8762144022503964 0 0 0.8996844530950593
          0 0 0.8135739183652647 0 0 0.5557910741636709
          0 0 0.5792611250083339
          <InformationKey name="L2_NORM_RANGE" location="vtkDataArray" length="2">
            <Value index="0">
              0.088952130364
            </Value>
            <Value index="1">
              1.9954079616
            </Value>
          </InformationKey>
          <InformationKey name="L2_NORM_FINITE_RANGE" location="vtkDataArray" length="2">
            <Value index="0">
              0.088952130364
            </Value>
            <Value index="1">
              1.9954079616
            </Value>
          </InformationKey>
        </DataArray>
      </PointData>
      <CellData>
      </CellData>
      <Points>
        <DataArray type="Float32" Name="Points" NumberOfComponents="3" format="ascii" RangeMin="1" RangeMax="2.871096916901671">
          0 0 1 1 0 1.8414709568023682
          2 0 1.9092974662780762 0 1 0.5403022766113281
          1 1 1.3817732334136963 2 1 1.4495997428894043
          0 2 -0.416146844625473 1 2 0.42532414197921753
          2 2 0.49315059185028076 0.3333333432674408 0 1.3271946907043457
          0.6666666865348816 0 1.6183698177337646 0 0.3333333432674408 0.9449569582939148
          0.3333333432674408 0.3333333432674408 1.2721517086029053 0.6666666865348816 0.3333333432674408 1.5633267164230347
          1 0.3333333432674408 1.7864279747009277 0 0.6666666865348816 0.7858872413635254
          0.3333333432674408 0.6666666865348816 1.113081932067871 0.6666666865348816 0.6666666865348816 1.40425705909729
          1 0.6666666865348816 1.6273581981658936 0.3333333432674408 1 0.8674970269203186
          0.6666666865348816 1 1.1586720943450928 1.3333333730697632 0 1.971937894821167
          1.6666666269302368 0 1.9954079389572144 1.3333333730697632 0.3333333432674408 1.9168949127197266
          1.6666666269302368 0.3333333432674408 1.940364956855774 2 0.3333333432674408 1.8542543649673462
          1.3333333730697632 0.6666666865348816 1.7578251361846924 1.6666666269302368 0.6666666865348816 1.7812951803207397
          2 0.6666666865348816 1.6951847076416016 1.3333333730697632 1 1.5122401714324951
          1.6666666269302368 1 1.5357102155685425 0 1.3333333730697632 0.23523753881454468
          0.3333333432674408 1.3333333730697632 0.5624322295188904 0.6666666865348816 1.3333333730697632 0.8536073565483093
          1 1.3333333730697632 1.0767085552215576 0 1.6666666269302368 -0.09572350978851318
          0.3333333432674408 1.6666666269302368 0.2314711958169937 0.6666666865348816 1.6666666269302368 0.5226463079452515
          1 1.6666666269302368 0.745747447013855 0.3333333432674408 2 -0.08895213156938553
          0.6666666865348816 2 0.20222298800945282 1.3333333730697632 1.3333333730697632 1.2071754932403564
          1.6666666269302368 1.3333333730697632 1.2306455373764038 2 1.3333333730697632 1.144534945487976
          1.3333333730697632 1.6666666269302368 0.8762143850326538 1.6666666269302368 1.6666666269302368 0.8996844291687012
          2 1.6666666269302368 0.8135738968849182 1.3333333730697632 2 0.5557910799980164
          1.6666666269302368 2 0.5792611241340637
          <InformationKey name="L2_NORM_FINITE_RANGE" location="vtkDataArray" length="2">
            <Value index="0">
              1
            </Value>
            <Value index="1">
              2.8710969169
            </Value>
          </InformationKey>
          <InformationKey name="L2_NORM_RANGE" location="vtkDataArray" length="2">
            <Value index="0">
              1
            </Value>
            <Value index="1">
              2.8710969169
            </Value>
          </InformationKey>
        </DataArray>
      </Points>
      <Cells>
        <DataArray type="Int64" Name="connectivity" format="ascii" RangeMin="0" RangeMax="48">
          0 1 3  9 10 13 16 15 11 12 
          4 3 1 20 19 16 13 14 18 17 
          1 2 4 21 22 24 26 18 14 23
          5 4 2 30 29 26 24 25 28 27 
          3 4 6 19 20 33 36 35 31 32 
          7 6 4 40 39 36 33 34 38 37
          4 5 7 29 30 42 44 38 34 41 
          8 7 5 48 47 44 42 43 46 45
        </DataArray>
        <DataArray type="Int64" Name="offsets" format="ascii" RangeMin="10" RangeMax="80">
          10 20 30 40 50 60
          70 80
        </DataArray>
        <DataArray type="UInt8" Name="types" format="ascii" RangeMin="69" RangeMax="69">
          69 69 69 69 69 69
          69 69
        </DataArray>
      </Cells>
    </Piece>
  </UnstructuredGrid>
</VTKFile>
